<?xml version="1.0"?>
<VTKFile type="UnstructuredGrid" version="0.1" byte_order="LittleEndian">
   <UnstructuredGrid>
      <Piece NumberOfPoints="25" NumberOfCells="0" > 
         <Points> 
            <DataArray type="Float64" Name="Position" NumberOfComponents="3" format="ascii"> 
               3.05  1.35  0  
               3.15  1.35  0  
               3.25  1.35  0  
               3.35  1.35  0  
               3.45  1.35  0  
               3.05  1.15  0  
               3.15  1.15  0  
               3.25  1.15  0  
               3.35  1.15  0  
               3.45  1.15  0  
               3.05  1.45  0  
               3.15  1.45  0  
               3.25  1.45  0  
               3.35  1.45  0  
               3.45  1.45  0  
               3.05  1.25  0  
               3.15  1.25  0  
               3.25  1.25  0  
               3.35  1.25  0  
               3.45  1.25  0  
               3.05  1.05  0  
               3.15  1.05  0  
               3.25  1.05  0  
               3.35  1.05  0  
               3.45  1.05  0  
            </DataArray>
         </Points> 

         <Cells>
            <DataArray type="Int32" Name="connectivity" NumberOfComponents="1" format="ascii">
               
            </DataArray> 
            <DataArray type="Int32" Name="offsets" NumberOfComponents="1" format="ascii">
               
            </DataArray>
            <DataArray type="UInt8"  Name="types" NumberOfComponents="1" format="ascii">
               
            </DataArray>
         </Cells>
         <PointData Scalars="Rank " Vectors="Velocity ">
            <DataArray type="UInt32" Name="Rank" NumberOfComponents="1" format="ascii">
               0 0 0 0 0 0 0 0 0 0 0 0 0 0 0 0 0 0 0 0 0 0 0 0 0 
            </DataArray>
            <DataArray type="Float64" Name="Velocity" NumberOfComponents="3" format="ascii">
               0.001 0 0.0  0.001 0 0.0  0.001 0 0.0  0.001 0 0.0  0.001 0 0.0  0.001 0 0.0  0.001 0 0.0  0.001 0 0.0  0.001 0 0.0  0.001 0 0.0  0.001 0 0.0  0.001 0 0.0  0.001 0 0.0  0.001 0 0.0  0.001 0 0.0  0.001 0 0.0  0.001 0 0.0  0.001 0 0.0  0.001 0 0.0  0.001 0 0.0  0.001 0 0.0  0.001 0 0.0  0.001 0 0.0  0.001 0 0.0  0.001 0 0.0  
            </DataArray>
         </PointData> 
      </Piece>
   </UnstructuredGrid> 
</VTKFile>
